Program Version,EnergyPlus, Version 8.6.0-198c6a3cff, YMD=2016.12.07 15:24
1,5,Environment Title[],Latitude[deg],Longitude[deg],Time Zone[],Elevation[m]
2,6,Day of Simulation[],Month[],Day of Month[],DST Indicator[1=yes 0=no],Hour[],StartMinute[],EndMinute[],DayType
3,3,Cumulative Day of Simulation[],Month[],Day of Month[],DST Indicator[1=yes 0=no],DayType  ! When Daily Meters Requested
4,2,Cumulative Days of Simulation[],Month[]  ! When Monthly Meters Requested
5,1,Cumulative Days of Simulation[] ! When Run Period Meters Requested
82,1,DistrictHeating:Facility [J] !Hourly
113,1,DistrictCooling:Facility [J] !Hourly
End of Data Dictionary
1,CHICAGO_IL_USA COOLING .4% CONDITIONS DB=>MWB,  41.78, -87.75,  -6.00, 190.00
2,1, 7,21, 0, 1, 0.00,60.00,SummerDesignDay
82,0.0
113,0.0
2,1, 7,21, 0, 2, 0.00,60.00,SummerDesignDay
82,0.0
113,0.0
2,1, 7,21, 0, 3, 0.00,60.00,SummerDesignDay
82,0.0
113,0.0
2,1, 7,21, 0, 4, 0.00,60.00,SummerDesignDay
82,0.0
113,0.0
2,1, 7,21, 0, 5, 0.00,60.00,SummerDesignDay
82,0.0
113,0.0
2,1, 7,21, 0, 6, 0.00,60.00,SummerDesignDay
82,0.0
113,0.0
2,1, 7,21, 0, 7, 0.00,60.00,SummerDesignDay
82,0.0
113,0.0
2,1, 7,21, 0, 8, 0.00,60.00,SummerDesignDay
82,0.0
113,0.0
2,1, 7,21, 0, 9, 0.00,60.00,SummerDesignDay
82,2.4581936486356427e-8
113,279155.2517023405
2,1, 7,21, 0,10, 0.00,60.00,SummerDesignDay
82,3.256275249441387e-8
113,907227.4324245912
2,1, 7,21, 0,11, 0.00,60.00,SummerDesignDay
82,3.857394403894432e-8
113,1371022.5195170374
2,1, 7,21, 0,12, 0.00,60.00,SummerDesignDay
82,0.0
113,1626344.4728549787
2,1, 7,21, 0,13, 0.00,60.00,SummerDesignDay
82,5.7195848057745027e-8
113,1750387.9732436639
2,1, 7,21, 0,14, 0.00,60.00,SummerDesignDay
82,7.786411515553482e-8
113,1921664.5605778192
2,1, 7,21, 0,15, 0.00,60.00,SummerDesignDay
82,1.524540493846871e-8
113,2009492.1096181067
2,1, 7,21, 0,16, 0.00,60.00,SummerDesignDay
82,0.0
113,1918168.5829742705
2,1, 7,21, 0,17, 0.00,60.00,SummerDesignDay
82,5.586571205640212e-8
113,1635419.6642467334
2,1, 7,21, 0,18, 0.00,60.00,SummerDesignDay
82,3.228137757105287e-8
113,1286232.4854689094
2,1, 7,21, 0,19, 0.00,60.00,SummerDesignDay
82,1.2047962627548259e-8
113,750213.9569790105
2,1, 7,21, 0,20, 0.00,60.00,SummerDesignDay
82,5.051958851254312e-10
113,76911.31018807335
2,1, 7,21, 0,21, 0.00,60.00,SummerDesignDay
82,0.0
113,0.0
2,1, 7,21, 0,22, 0.00,60.00,SummerDesignDay
82,0.0
113,0.0
2,1, 7,21, 0,23, 0.00,60.00,SummerDesignDay
82,0.0
113,0.0
2,1, 7,21, 0,24, 0.00,60.00,SummerDesignDay
82,0.0
113,0.0
1,CHICAGO_IL_USA HEATING 99.6% CONDITIONS,  41.78, -87.75,  -6.00, 190.00
2,1, 1,21, 0, 1, 0.00,60.00,WinterDesignDay
82,5884000.995536374
113,1.6350441001122818e-7
2,1, 1,21, 0, 2, 0.00,60.00,WinterDesignDay
82,5884000.995536374
113,1.6350441001122818e-7
2,1, 1,21, 0, 3, 0.00,60.00,WinterDesignDay
82,5884000.995536376
113,1.6370904631912709e-7
2,1, 1,21, 0, 4, 0.00,60.00,WinterDesignDay
82,5884000.995536372
113,1.6329977370332927e-7
2,1, 1,21, 0, 5, 0.00,60.00,WinterDesignDay
82,5884000.995536376
113,1.6370904631912709e-7
2,1, 1,21, 0, 6, 0.00,60.00,WinterDesignDay
82,5884000.995536372
113,1.6329977370332927e-7
2,1, 1,21, 0, 7, 0.00,60.00,WinterDesignDay
82,5884000.995536376
113,1.6370904631912709e-7
2,1, 1,21, 0, 8, 0.00,60.00,WinterDesignDay
82,5884000.995536374
113,1.6350441001122818e-7
2,1, 1,21, 0, 9, 0.00,60.00,WinterDesignDay
82,5884000.995536374
113,1.6350441001122818e-7
2,1, 1,21, 0,10, 0.00,60.00,WinterDesignDay
82,5884000.995536374
113,1.6350441001122818e-7
2,1, 1,21, 0,11, 0.00,60.00,WinterDesignDay
82,5884000.995536374
113,1.6350441001122818e-7
2,1, 1,21, 0,12, 0.00,60.00,WinterDesignDay
82,5884000.995536376
113,1.6370904631912709e-7
2,1, 1,21, 0,13, 0.00,60.00,WinterDesignDay
82,5884000.995536372
113,1.6329977370332927e-7
2,1, 1,21, 0,14, 0.00,60.00,WinterDesignDay
82,5884000.995536376
113,1.6370904631912709e-7
2,1, 1,21, 0,15, 0.00,60.00,WinterDesignDay
82,5884000.995536372
113,1.6329977370332927e-7
2,1, 1,21, 0,16, 0.00,60.00,WinterDesignDay
82,5884000.995536376
113,1.6370904631912709e-7
2,1, 1,21, 0,17, 0.00,60.00,WinterDesignDay
82,5884000.995536374
113,1.6350441001122818e-7
2,1, 1,21, 0,18, 0.00,60.00,WinterDesignDay
82,5884000.995536374
113,1.6350441001122818e-7
2,1, 1,21, 0,19, 0.00,60.00,WinterDesignDay
82,5884000.995536374
113,1.6350441001122818e-7
2,1, 1,21, 0,20, 0.00,60.00,WinterDesignDay
82,5884000.995536374
113,1.6350441001122818e-7
2,1, 1,21, 0,21, 0.00,60.00,WinterDesignDay
82,5884000.995536376
113,1.6370904631912709e-7
2,1, 1,21, 0,22, 0.00,60.00,WinterDesignDay
82,5884000.995536372
113,1.6329977370332927e-7
2,1, 1,21, 0,23, 0.00,60.00,WinterDesignDay
82,5884000.995536376
113,1.6370904631912709e-7
2,1, 1,21, 0,24, 0.00,60.00,WinterDesignDay
82,5884000.995536372
113,1.6329977370332927e-7
End of Data
 Number of Records Written=          96
