Program Version,EnergyPlus, Version 8.6.0-198c6a3cff, YMD=2016.12.07 15:24
1,5,Environment Title[],Latitude[deg],Longitude[deg],Time Zone[],Elevation[m]
2,6,Day of Simulation[],Month[],Day of Month[],DST Indicator[1=yes 0=no],Hour[],StartMinute[],EndMinute[],DayType
3,3,Cumulative Day of Simulation[],Month[],Day of Month[],DST Indicator[1=yes 0=no],DayType  ! When Daily Report Variables Requested
4,2,Cumulative Days of Simulation[],Month[]  ! When Monthly Report Variables Requested
5,1,Cumulative Days of Simulation[] ! When Run Period Report Variables Requested
6,1,Environment,Site Outdoor Air Drybulb Temperature [C] !Hourly
7,1,ZONE ONE,Zone Air System Sensible Heating Energy [J] !Hourly
58,1,ZONE ONE,Zone Air System Sensible Cooling Energy [J] !Hourly
79,1,ZONE ONE,Zone Air Temperature [C] !Hourly
82,1,DistrictHeating:Facility [J] !Hourly
113,1,DistrictCooling:Facility [J] !Hourly
End of Data Dictionary
1,CHICAGO_IL_USA COOLING .4% CONDITIONS DB=>MWB,  41.78, -87.75,  -6.00, 190.00
2,1, 7,21, 0, 1, 0.00,60.00,SummerDesignDay
6,23.453249999999998
7,0.0
58,0.0
79,22.083927484519806
82,0.0
113,0.0
2,1, 7,21, 0, 2, 0.00,60.00,SummerDesignDay
6,22.935499999999999
7,0.0
58,0.0
79,21.926930809516049
82,0.0
113,0.0
2,1, 7,21, 0, 3, 0.00,60.00,SummerDesignDay
6,22.567625
7,0.0
58,0.0
79,21.805778314966479
82,0.0
113,0.0
2,1, 7,21, 0, 4, 0.00,60.00,SummerDesignDay
6,22.240624999999999
7,0.0
58,0.0
79,21.712902214611299
82,0.0
113,0.0
2,1, 7,21, 0, 5, 0.00,60.00,SummerDesignDay
6,21.981749999999999
7,0.0
58,0.0
79,21.6397309355238
82,0.0
113,0.0
2,1, 7,21, 0, 6, 0.00,60.00,SummerDesignDay
6,22.036249999999997
7,0.0
58,0.0
79,21.70864743762628
82,0.0
113,0.0
2,1, 7,21, 0, 7, 0.00,60.00,SummerDesignDay
6,22.594875
7,0.0
58,0.0
79,22.430803096463536
82,0.0
113,0.0
2,1, 7,21, 0, 8, 0.00,60.00,SummerDesignDay
6,24.039124999999996
7,0.0
58,0.0
79,23.41328011343819
82,0.0
113,0.0
2,1, 7,21, 0, 9, 0.00,60.00,SummerDesignDay
6,26.028374999999998
7,0.0
58,279460.98166705018
79,23.986248441546765
82,2.4581936486356427e-8
113,279155.2517023405
2,1, 7,21, 0,10, 0.00,60.00,SummerDesignDay
6,27.963124999999999
7,0.0
58,907227.4384128676
79,23.999999996612855
82,3.256275249441387e-8
113,907227.4324245912
2,1, 7,21, 0,11, 0.00,60.00,SummerDesignDay
6,29.679874999999997
7,0.0
58,1371022.5195170206
79,23.999999999999969
82,3.857394403894432e-8
113,1371022.5195170374
2,1, 7,21, 0,12, 0.00,60.00,SummerDesignDay
6,30.974249999999999
7,0.0
58,1626344.472855064
79,23.999999999999987
82,0.0
113,1626344.4728549787
2,1, 7,21, 0,13, 0.00,60.00,SummerDesignDay
6,31.927999999999999
7,0.0
58,1750387.9732436035
79,24.00000000000001
82,5.7195848057745027e-8
113,1750387.9732436639
2,1, 7,21, 0,14, 0.00,60.00,SummerDesignDay
6,32.595625
7,0.0
58,1921664.5605778406
79,24.000000000000055
82,7.786411515553482e-8
113,1921664.5605778192
2,1, 7,21, 0,15, 0.00,60.00,SummerDesignDay
6,32.8
7,0.0
58,2009492.1096182364
79,24.0
82,1.524540493846871e-8
113,2009492.1096181067
2,1, 7,21, 0,16, 0.00,60.00,SummerDesignDay
6,32.39125
7,0.0
58,1918168.58297433
79,24.000000000000005
82,0.0
113,1918168.5829742705
2,1, 7,21, 0,17, 0.00,60.00,SummerDesignDay
6,31.601
7,0.0
58,1635419.6642466766
79,24.00000000000001
82,5.586571205640212e-8
113,1635419.6642467334
2,1, 7,21, 0,18, 0.00,60.00,SummerDesignDay
6,30.592749999999996
7,0.0
58,1286232.4854689993
79,24.0
82,3.228137757105287e-8
113,1286232.4854689094
2,1, 7,21, 0,19, 0.00,60.00,SummerDesignDay
6,29.162124999999997
7,0.0
58,750213.9569789971
79,23.999999999999998
82,1.2047962627548259e-8
113,750213.9569790105
2,1, 7,21, 0,20, 0.00,60.00,SummerDesignDay
6,27.799624999999997
7,0.0
58,76911.31018807396
79,23.948265252591466
82,5.051958851254312e-10
113,76911.31018807335
2,1, 7,21, 0,21, 0.00,60.00,SummerDesignDay
6,26.736874999999999
7,0.0
58,0.0
79,23.442120624484319
82,0.0
113,0.0
2,1, 7,21, 0,22, 0.00,60.00,SummerDesignDay
6,25.755874999999997
7,0.0
58,0.0
79,22.94070675696976
82,0.0
113,0.0
2,1, 7,21, 0,23, 0.00,60.00,SummerDesignDay
6,24.911125
7,0.0
58,0.0
79,22.57667900178773
82,0.0
113,0.0
2,1, 7,21, 0,24, 0.00,60.00,SummerDesignDay
6,24.148124999999998
7,0.0
58,0.0
79,22.2941043290179
82,0.0
113,0.0
1,CHICAGO_IL_USA HEATING 99.6% CONDITIONS,  41.78, -87.75,  -6.00, 190.00
2,1, 1,21, 0, 1, 0.00,60.00,WinterDesignDay
6,-21.2
7,5884000.995536375
58,0.0
79,20.0
82,5884000.995536374
113,1.6350441001122818e-7
2,1, 1,21, 0, 2, 0.00,60.00,WinterDesignDay
6,-21.2
7,5884000.995536375
58,0.0
79,20.0
82,5884000.995536374
113,1.6350441001122818e-7
2,1, 1,21, 0, 3, 0.00,60.00,WinterDesignDay
6,-21.2
7,5884000.995536377
58,0.0
79,20.0
82,5884000.995536376
113,1.6370904631912709e-7
2,1, 1,21, 0, 4, 0.00,60.00,WinterDesignDay
6,-21.2
7,5884000.995536373
58,0.0
79,20.0
82,5884000.995536372
113,1.6329977370332927e-7
2,1, 1,21, 0, 5, 0.00,60.00,WinterDesignDay
6,-21.2
7,5884000.995536377
58,0.0
79,20.0
82,5884000.995536376
113,1.6370904631912709e-7
2,1, 1,21, 0, 6, 0.00,60.00,WinterDesignDay
6,-21.2
7,5884000.995536373
58,0.0
79,20.0
82,5884000.995536372
113,1.6329977370332927e-7
2,1, 1,21, 0, 7, 0.00,60.00,WinterDesignDay
6,-21.2
7,5884000.995536377
58,0.0
79,20.0
82,5884000.995536376
113,1.6370904631912709e-7
2,1, 1,21, 0, 8, 0.00,60.00,WinterDesignDay
6,-21.2
7,5884000.995536375
58,0.0
79,20.0
82,5884000.995536374
113,1.6350441001122818e-7
2,1, 1,21, 0, 9, 0.00,60.00,WinterDesignDay
6,-21.2
7,5884000.995536375
58,0.0
79,20.0
82,5884000.995536374
113,1.6350441001122818e-7
2,1, 1,21, 0,10, 0.00,60.00,WinterDesignDay
6,-21.2
7,5884000.995536375
58,0.0
79,20.0
82,5884000.995536374
113,1.6350441001122818e-7
2,1, 1,21, 0,11, 0.00,60.00,WinterDesignDay
6,-21.2
7,5884000.995536375
58,0.0
79,20.0
82,5884000.995536374
113,1.6350441001122818e-7
2,1, 1,21, 0,12, 0.00,60.00,WinterDesignDay
6,-21.2
7,5884000.995536377
58,0.0
79,20.0
82,5884000.995536376
113,1.6370904631912709e-7
2,1, 1,21, 0,13, 0.00,60.00,WinterDesignDay
6,-21.2
7,5884000.995536373
58,0.0
79,20.0
82,5884000.995536372
113,1.6329977370332927e-7
2,1, 1,21, 0,14, 0.00,60.00,WinterDesignDay
6,-21.2
7,5884000.995536377
58,0.0
79,20.0
82,5884000.995536376
113,1.6370904631912709e-7
2,1, 1,21, 0,15, 0.00,60.00,WinterDesignDay
6,-21.2
7,5884000.995536373
58,0.0
79,20.0
82,5884000.995536372
113,1.6329977370332927e-7
2,1, 1,21, 0,16, 0.00,60.00,WinterDesignDay
6,-21.2
7,5884000.995536377
58,0.0
79,20.0
82,5884000.995536376
113,1.6370904631912709e-7
2,1, 1,21, 0,17, 0.00,60.00,WinterDesignDay
6,-21.2
7,5884000.995536375
58,0.0
79,20.0
82,5884000.995536374
113,1.6350441001122818e-7
2,1, 1,21, 0,18, 0.00,60.00,WinterDesignDay
6,-21.2
7,5884000.995536375
58,0.0
79,20.0
82,5884000.995536374
113,1.6350441001122818e-7
2,1, 1,21, 0,19, 0.00,60.00,WinterDesignDay
6,-21.2
7,5884000.995536375
58,0.0
79,20.0
82,5884000.995536374
113,1.6350441001122818e-7
2,1, 1,21, 0,20, 0.00,60.00,WinterDesignDay
6,-21.2
7,5884000.995536375
58,0.0
79,20.0
82,5884000.995536374
113,1.6350441001122818e-7
2,1, 1,21, 0,21, 0.00,60.00,WinterDesignDay
6,-21.2
7,5884000.995536377
58,0.0
79,20.0
82,5884000.995536376
113,1.6370904631912709e-7
2,1, 1,21, 0,22, 0.00,60.00,WinterDesignDay
6,-21.2
7,5884000.995536373
58,0.0
79,20.0
82,5884000.995536372
113,1.6329977370332927e-7
2,1, 1,21, 0,23, 0.00,60.00,WinterDesignDay
6,-21.2
7,5884000.995536377
58,0.0
79,20.0
82,5884000.995536376
113,1.6370904631912709e-7
2,1, 1,21, 0,24, 0.00,60.00,WinterDesignDay
6,-21.2
7,5884000.995536373
58,0.0
79,20.0
82,5884000.995536372
113,1.6329977370332927e-7
End of Data
 Number of Records Written=         288
